# total energy = -2574.6468155997664191 eV

ATOMS
Ar      0.0000000000   0.0000000000   0.0000000000	   0.0000000000   0.0000000000   0.0000000000
Ar      0.0000000000   0.0000000000   3.5000000000	   0.0000000000   0.0000000000   0.0000000000
