# total energy = -2574.6509544516144339 eV

ATOMS
Ar      0.0000000000   0.0000000000   0.0000000000	   0.0000000000   0.0000000000   0.0000000000
Ar      0.0000000000   0.0000000000   4.5500000000	   0.0000000000   0.0000000000   0.0000000000
