# total energy = -2574.6505027426027505 eV

ATOMS
Ar      0.0000000000   0.0000000000   0.0000000000	   0.0000000000   0.0000000000   0.0000000000
Ar      0.0000000000   0.0000000000   4.6000000000	   0.0000000000   0.0000000000   0.0000000000
