# total energy = -2574.6459202091019949 eV

ATOMS
Ar      0.0000000000   0.0000000000   0.0000000000	   0.0000000000   0.0000000000   0.0000000000
Ar      0.0000000000   0.0000000000   5.5000000000	   0.0000000000   0.0000000000   0.0000000000
