# total energy = -2574.6095649807357676 eV

ATOMS
Ar      0.0000000000   0.0000000000   0.0000000000	   0.0000000000   0.0000000000   0.0000000000
Ar      0.0000000000   0.0000000000   3.2000000000	   0.0000000000   0.0000000000   0.0000000000
