# total energy = -2574.6490485661217649 eV

ATOMS
Ar      0.0000000000   0.0000000000   0.0000000000	   0.0000000000   0.0000000000   0.0000000000
Ar      0.0000000000   0.0000000000   4.8000000000	   0.0000000000   0.0000000000   0.0000000000
