# total energy = -2574.6274446302394877 eV

ATOMS
Ar      0.0000000000   0.0000000000   0.0000000000	   0.0000000000   0.0000000000   0.0000000000
Ar      0.0000000000   0.0000000000   3.3000000000	   0.0000000000   0.0000000000   0.0000000000
