# total energy = -2574.6497321161442641 eV

ATOMS
Ar      0.0000000000   0.0000000000   0.0000000000	   0.0000000000   0.0000000000   0.0000000000
Ar      0.0000000000   0.0000000000   4.7000000000	   0.0000000000   0.0000000000   0.0000000000
