# total energy = -2574.6536159973031540 eV

ATOMS
Ar      0.0000000000   0.0000000000   0.0000000000	   0.0000000000   0.0000000000   0.0000000000
Ar      0.0000000000   0.0000000000   4.2500000000	   0.0000000000   0.0000000000   0.0000000000
