# total energy = -2574.6486986276946415 eV

ATOMS
Ar      0.0000000000   0.0000000000   0.0000000000	   0.0000000000   0.0000000000   0.0000000000
Ar      0.0000000000   0.0000000000   4.8500000000	   0.0000000000   0.0000000000   0.0000000000
