# total energy = -2574.6556463748878984 eV

ATOMS
Ar      0.0000000000   0.0000000000   0.0000000000	   0.0000000000   0.0000000000   0.0000000000
Ar      0.0000000000   0.0000000000   3.9000000000	   0.0000000000   0.0000000000   0.0000000000
