# total energy = -2574.6555358966597397 eV

ATOMS
Ar      0.0000000000   0.0000000000   0.0000000000	   0.0000000000   0.0000000000   0.0000000000
Ar      0.0000000000   0.0000000000   3.8500000000	   0.0000000000   0.0000000000   0.0000000000
