# total energy = -2574.6513906501359571 eV

ATOMS
Ar      0.0000000000   0.0000000000   0.0000000000	   0.0000000000   0.0000000000   0.0000000000
Ar      0.0000000000   0.0000000000   3.6000000000	   0.0000000000   0.0000000000   0.0000000000
