# total energy = -2574.6522823672632381 eV

ATOMS
Ar      0.0000000000   0.0000000000   0.0000000000	   0.0000000000   0.0000000000   0.0000000000
Ar      0.0000000000   0.0000000000   4.4000000000	   0.0000000000   0.0000000000   0.0000000000
