# total energy = -2574.6513911943636820 eV

ATOMS
Ar      0.0000000000   0.0000000000   0.0000000000	   0.0000000000   0.0000000000   0.0000000000
Ar      0.0000000000   0.0000000000   4.5000000000	   0.0000000000   0.0000000000   0.0000000000
