# total energy = -2574.6475919406160172 eV

ATOMS
Ar      0.0000000000   0.0000000000   0.0000000000	   0.0000000000   0.0000000000   0.0000000000
Ar      0.0000000000   0.0000000000   5.0500000000	   0.0000000000   0.0000000000   0.0000000000
