# total energy = -2574.6460383065183025 eV

ATOMS
Ar      0.0000000000   0.0000000000   0.0000000000	   0.0000000000   0.0000000000   0.0000000000
Ar      0.0000000000   0.0000000000   5.4500000000	   0.0000000000   0.0000000000   0.0000000000
