# total energy = -1195.9868888171306932 eV

ATOMS
    O       1.3509999944     0.1109999995     0.0000000000       0.0000000000     0.0000000000     0.0000000000
    H       1.6799999930    -0.3739999984    -0.7589999968       0.0000000000     0.0000000000     0.0000000000
    H       1.6799999930    -0.3739999984     0.7589999968       0.0000000000     0.0000000000     0.0000000000
    O      -1.9506919919    -0.1306639995     0.0000000000       0.0000000000     0.0000000000     0.0000000000
    H      -2.3336919903     0.7463359969     0.0000000000       0.0000000000     0.0000000000     0.0000000000
    H      -0.9996919958     0.0253359999     0.0000000000       0.0000000000     0.0000000000     0.0000000000
