# total energy = -1195.9450902230598184 eV

ATOMS
    O       1.3509999944     0.1109999995     0.0000000000       0.0000000000     0.0000000000     0.0000000000
    H       1.6799999930    -0.3739999984    -0.7589999968       0.0000000000     0.0000000000     0.0000000000
    H       1.6799999930    -0.3739999984     0.7589999968       0.0000000000     0.0000000000     0.0000000000
    O      -2.2504639906    -0.1424119994     0.0000000000       0.0000000000     0.0000000000     0.0000000000
    H      -2.6334639890     0.7345879969     0.0000000000       0.0000000000     0.0000000000     0.0000000000
    H      -1.2994639946     0.0135879999     0.0000000000       0.0000000000     0.0000000000     0.0000000000
