# total energy = -1195.8191419136494693 eV

ATOMS
    O       1.3509999944     0.1109999995     0.0000000000       0.0000000000     0.0000000000     0.0000000000
    H       1.6799999930    -0.3739999984    -0.7589999968       0.0000000000     0.0000000000     0.0000000000
    H       1.6799999930    -0.3739999984     0.7589999968       0.0000000000     0.0000000000     0.0000000000
    O      -6.5471639727    -0.3108119987     0.0000000000       0.0000000000     0.0000000000     0.0000000000
    H      -6.9301639711     0.5661879976     0.0000000000       0.0000000000     0.0000000000     0.0000000000
    H      -5.5961639766    -0.1548119994     0.0000000000       0.0000000000     0.0000000000     0.0000000000
