# total energy = -1196.0222896061243425 eV

ATOMS
    O       1.3509999944     0.1109999995     0.0000000000       0.0000000000     0.0000000000     0.0000000000
    H       1.6799999930    -0.3739999984    -0.7589999968       0.0000000000     0.0000000000     0.0000000000
    H       1.6799999930    -0.3739999984     0.7589999968       0.0000000000     0.0000000000     0.0000000000
    O      -1.4510759939    -0.1110839995     0.0000000000       0.0000000000     0.0000000000     0.0000000000
    H      -1.8340759923     0.7659159968     0.0000000000       0.0000000000     0.0000000000     0.0000000000
    H      -0.5000759979     0.0449159998     0.0000000000       0.0000000000     0.0000000000     0.0000000000
