# total energy = -1196.0003115136811830 eV

ATOMS
    O       1.3509999944     0.1109999995     0.0000000000       0.0000000000     0.0000000000     0.0000000000
    H       1.6799999930    -0.3739999984    -0.7589999968       0.0000000000     0.0000000000     0.0000000000
    H       1.6799999930    -0.3739999984     0.7589999968       0.0000000000     0.0000000000     0.0000000000
    O      -1.3511519944    -0.1071679996     0.0000000000       0.0000000000     0.0000000000     0.0000000000
    H      -1.7341519928     0.7698319968     0.0000000000       0.0000000000     0.0000000000     0.0000000000
    H      -0.4001519983     0.0488319998     0.0000000000       0.0000000000     0.0000000000     0.0000000000
