# total energy = -597.9056834021287015 eV

ATOMS
    O       1.3509999944     0.1109999995     0.0000000000       0.0000000000     0.0000000000     0.0000000000
    H       1.6799999930    -0.3739999984    -0.7589999968       0.0000000000     0.0000000000     0.0000000000
    H       1.6799999930    -0.3739999984     0.7589999968       0.0000000000     0.0000000000     0.0000000000
