# total energy = -597.9065845071842374 eV

ATOMS
    O      -1.5509999935    -0.1149999995     0.0000000000       0.0000000000     0.0000000000     0.0000000000
    H      -1.9339999919     0.7619999968     0.0000000000       0.0000000000     0.0000000000     0.0000000000
    H      -0.5999999975     0.0409999998     0.0000000000       0.0000000000     0.0000000000     0.0000000000
