# total energy = -1195.8737004709588128 eV

ATOMS
    O       1.3509999944     0.1109999995     0.0000000000       0.0000000000     0.0000000000     0.0000000000
    H       1.6799999930    -0.3739999984    -0.7589999968       0.0000000000     0.0000000000     0.0000000000
    H       1.6799999930    -0.3739999984     0.7589999968       0.0000000000     0.0000000000     0.0000000000
    O      -3.0498479873    -0.1737439993     0.0000000000       0.0000000000     0.0000000000     0.0000000000
    H      -3.4328479857     0.7032559971     0.0000000000       0.0000000000     0.0000000000     0.0000000000
    H      -2.0988479912    -0.0177439999     0.0000000000       0.0000000000     0.0000000000     0.0000000000
