# total energy = -1194.5384827827124187 eV

ATOMS
    O       1.3509999944     0.1109999995     0.0000000000       0.0000000000     0.0000000000     0.0000000000
    H       1.6799999930    -0.3739999984    -0.7589999968       0.0000000000     0.0000000000     0.0000000000
    H       1.6799999930    -0.3739999984     0.7589999968       0.0000000000     0.0000000000     0.0000000000
    O      -0.7516119969    -0.0836719997     0.0000000000       0.0000000000     0.0000000000     0.0000000000
    H      -1.1346119953     0.7933279967     0.0000000000       0.0000000000     0.0000000000     0.0000000000
    H       0.1993879992     0.0723279997     0.0000000000       0.0000000000     0.0000000000     0.0000000000
