# total energy = -1195.8136838537962490 eV

ATOMS
    O       1.3509999944     0.1109999995     0.0000000000       0.0000000000     0.0000000000     0.0000000000
    H       1.6799999930    -0.3739999984    -0.7589999968       0.0000000000     0.0000000000     0.0000000000
    H       1.6799999930    -0.3739999984     0.7589999968       0.0000000000     0.0000000000     0.0000000000
    O     -11.5433279518    -0.5066239979     0.0000000000       0.0000000000     0.0000000000     0.0000000000
    H     -11.9263279502     0.3703759985     0.0000000000       0.0000000000     0.0000000000     0.0000000000
    H     -10.5923279558    -0.3506239985     0.0000000000       0.0000000000     0.0000000000     0.0000000000
