# total energy = -1196.0239851476013301 eV

ATOMS
    O       1.3509999944     0.1109999995     0.0000000000       0.0000000000     0.0000000000     0.0000000000
    H       1.6799999930    -0.3739999984    -0.7589999968       0.0000000000     0.0000000000     0.0000000000
    H       1.6799999930    -0.3739999984     0.7589999968       0.0000000000     0.0000000000     0.0000000000
    O      -1.6509239931    -0.1189159995     0.0000000000       0.0000000000     0.0000000000     0.0000000000
    H      -2.0339239915     0.7580839968     0.0000000000       0.0000000000     0.0000000000     0.0000000000
    H      -0.6999239971     0.0370839998     0.0000000000       0.0000000000     0.0000000000     0.0000000000
