# total energy = -1195.8662343468575698 eV

ATOMS
    O       1.3509999944     0.1109999995     0.0000000000       0.0000000000     0.0000000000     0.0000000000
    H       1.6799999930    -0.3739999984    -0.7589999968       0.0000000000     0.0000000000     0.0000000000
    H       1.6799999930    -0.3739999984     0.7589999968       0.0000000000     0.0000000000     0.0000000000
    O      -1.1513079952    -0.0993359996     0.0000000000       0.0000000000     0.0000000000     0.0000000000
    H      -1.5343079936     0.7776639968     0.0000000000       0.0000000000     0.0000000000     0.0000000000
    H      -0.2003079992     0.0566639998     0.0000000000       0.0000000000     0.0000000000     0.0000000000
