# total energy = -1195.8315820070426164 eV

ATOMS
    O       1.3509999944     0.1109999995     0.0000000000       0.0000000000     0.0000000000     0.0000000000
    H       1.6799999930    -0.3739999984    -0.7589999968       0.0000000000     0.0000000000     0.0000000000
    H       1.6799999930    -0.3739999984     0.7589999968       0.0000000000     0.0000000000     0.0000000000
    O      -4.5486999810    -0.2324879990     0.0000000000       0.0000000000     0.0000000000     0.0000000000
    H      -4.9316999794     0.6445119973     0.0000000000       0.0000000000     0.0000000000     0.0000000000
    H      -3.5976999850    -0.0764879997     0.0000000000       0.0000000000     0.0000000000     0.0000000000
