# total energy = -1196.0140621074359368 eV

ATOMS
    O       1.3509999944     0.1109999995     0.0000000000       0.0000000000     0.0000000000     0.0000000000
    H       1.6799999930    -0.3739999984    -0.7589999968       0.0000000000     0.0000000000     0.0000000000
    H       1.6799999930    -0.3739999984     0.7589999968       0.0000000000     0.0000000000     0.0000000000
    O      -1.7508479927    -0.1228319995     0.0000000000       0.0000000000     0.0000000000     0.0000000000
    H      -2.1338479911     0.7541679969     0.0000000000       0.0000000000     0.0000000000     0.0000000000
    H      -0.7998479967     0.0331679999     0.0000000000       0.0000000000     0.0000000000     0.0000000000
