# total energy = -1195.8520052408756802 eV

ATOMS
    O       1.3509999944     0.1109999995     0.0000000000       0.0000000000     0.0000000000     0.0000000000
    H       1.6799999930    -0.3739999984    -0.7589999968       0.0000000000     0.0000000000     0.0000000000
    H       1.6799999930    -0.3739999984     0.7589999968       0.0000000000     0.0000000000     0.0000000000
    O      -3.5494639852    -0.1933239992     0.0000000000       0.0000000000     0.0000000000     0.0000000000
    H      -3.9324639836     0.6836759971     0.0000000000       0.0000000000     0.0000000000     0.0000000000
    H      -2.5984639892    -0.0373239998     0.0000000000       0.0000000000     0.0000000000     0.0000000000
