# total energy = -1195.9113131374834672 eV

ATOMS
    O       1.3509999944     0.1109999995     0.0000000000       0.0000000000     0.0000000000     0.0000000000
    H       1.6799999930    -0.3739999984    -0.7589999968       0.0000000000     0.0000000000     0.0000000000
    H       1.6799999930    -0.3739999984     0.7589999968       0.0000000000     0.0000000000     0.0000000000
    O      -2.5502319894    -0.1541639994     0.0000000000       0.0000000000     0.0000000000     0.0000000000
    H      -2.9332319878     0.7228359970     0.0000000000       0.0000000000     0.0000000000     0.0000000000
    H      -1.5992319933     0.0018360000     0.0000000000       0.0000000000     0.0000000000     0.0000000000
