ATOMS
 C        0.0000000000        0.0000000000        0.0000000000
 C        2.1700000000        0.0000000000        0.0000000000
