ATOMS
 C        0.0000000000        0.0000000000        0.0000000000
 C        2.5800000000        0.0000000000        0.0000000000
