ATOMS
 C        0.0000000000        0.0000000000        0.0000000000
 C        2.1000000000        0.0000000000        0.0000000000
