ATOMS
 C        0.0000000000        0.0000000000        0.0000000000
 C        1.9100000000        0.0000000000        0.0000000000
