ATOMS
 C        0.0000000000        0.0000000000        0.0000000000
 C        2.3100000000        0.0000000000        0.0000000000
