ATOMS
 C        0.0000000000        0.0000000000        0.0000000000
 C        1.8300000000        0.0000000000        0.0000000000
