ATOMS
 C        0.0000000000        0.0000000000        0.0000000000
 C        3.9100000000        0.0000000000        0.0000000000
