ATOMS
 C        0.0000000000        0.0000000000        0.0000000000
 C        1.2400000000        0.0000000000        0.0000000000
