ATOMS
 C        0.0000000000        0.0000000000        0.0000000000
 C        1.1200000000        0.0000000000        0.0000000000
