ATOMS
 C        0.0000000000        0.0000000000        0.0000000000
 C        3.5200000000        0.0000000000        0.0000000000
