ATOMS
 C        0.0000000000        0.0000000000        0.0000000000
 C        1.1700000000        0.0000000000        0.0000000000
