ATOMS
 C        0.0000000000        0.0000000000        0.0000000000
 C        3.3300000000        0.0000000000        0.0000000000
