# total energy = -1.34687137 eV

ATOMS
C 0.0 0.0 0.0  0.0 0.0 0.0
C 2.0 0.0 0.0  -3.57055108 0.0 0.0
