# total energy = -0.79879436 eV

ATOMS
C 0.0 0.0 0.0  0.0 0.0 0.0
C 2.2 0.0 0.0  -2.04236956 0.0 0.0
