# total energy = -0.48596532 eV

ATOMS
C 0.0 0.0 0.0  0.0 0.0 0.0
C 2.4 0.0 0.0  -1.17097938 0.0 0.0
