# total energy = -0.30477632 eV

ATOMS
C 0.0 0.0 0.0  0.0 0.0 0.0
C 2.6 0.0 0.0  -0.68780994 0.0 0.0
