# total energy = -3.45551679 eV

ATOMS
C 0.0 0.0 0.0  0.0 0.0 0.0
C 1.6 0.0 0.0  -4.40779119 0.0 0.0
