# total energy = -1.45972990 eV

ATOMS
    C       0.0000000000     0.0000000000     0.0000000000       0.0000000000     0.0000000000     0.0000000000
    C       1.4000000000     0.0000000000     0.0000000000      42.2596339500     0.0000000000     0.0000000000
