# total energy = -0.19692439 eV

ATOMS
 C 0.0 0.0 0.0  0.0 0.0 0.0
 C 2.8 0.0 0.0  -0.41605853 0.0 0.0
