# total energy = -2.27442659 eV

ATOMS
C 0.0 0.0 0.0  0.0 0.0 0.0
C 1.8 0.0 0.0  -5.73213854 0.0 0.0
