ATOMS
 O       1.350999994400      0.110999999500      0.000000000000
 H       1.679999993000     -0.373999998400     -0.758999996800
 H       1.679999993000     -0.373999998400      0.758999996800
 O      -4.049081983100     -0.212905999100      0.000000000000
 H      -4.432081981500      0.664093997200      0.000000000000
 H      -3.098081987100     -0.056905999750      0.000000000000
