ATOMS
 O       1.350999994400      0.110999999500      0.000000000000
 H       1.679999993000     -0.373999998400     -0.758999996800
 H       1.679999993000     -0.373999998400      0.758999996800
 O      -2.250463990600     -0.142411999400      0.000000000000
 H      -2.633463989000      0.734587996900      0.000000000000
 H      -1.299463994600      0.013587999900      0.000000000000
