ATOMS
 O       1.350999994400      0.110999999500      0.000000000000
 H       1.679999993000     -0.373999998400     -0.758999996800
 H       1.679999993000     -0.373999998400      0.758999996800
 O      -3.049847987300     -0.173743999300      0.000000000000
 H      -3.432847985700      0.703255997100      0.000000000000
 H      -2.098847991200     -0.017743999900      0.000000000000
