ATOMS
 O       1.350999994400      0.110999999500      0.000000000000
 H       1.679999993000     -0.373999998400     -0.758999996800
 H       1.679999993000     -0.373999998400      0.758999996800
 O      -7.796204967475     -0.359764998500      0.000000000000
 H      -8.179204965875      0.517234997825      0.000000000000
 H      -6.845204971400     -0.203764999175      0.000000000000
