ATOMS
 O       1.350999994400      0.110999999500      0.000000000000
 H       1.679999993000     -0.373999998400     -0.758999996800
 H       1.679999993000     -0.373999998400      0.758999996800
 O      -0.951459996050     -0.091503999650      0.000000000000
 H      -1.334459994450      0.785495996750      0.000000000000
 H      -0.000460000000      0.064495999750      0.000000000000
