ATOMS
 O       1.350999994400      0.110999999500      0.000000000000
 H       1.679999993000     -0.373999998400     -0.758999996800
 H       1.679999993000     -0.373999998400      0.758999996800
 O      -1.376132994275     -0.108146999575      0.000000000000
 H      -1.759132992675      0.768852996800      0.000000000000
 H      -0.425132998200      0.047852999800      0.000000000000
