ATOMS
 O       1.350999994400      0.110999999500      0.000000000000
 H       1.679999993000     -0.373999998400     -0.758999996800
 H       1.679999993000     -0.373999998400      0.758999996800
 O      -2.100577991250     -0.136537999450      0.000000000000
 H      -2.483577989650      0.740461996900      0.000000000000
 H      -1.149577995200      0.019461999900      0.000000000000
