ATOMS
 O       1.350999994400      0.110999999500      0.000000000000
 H       1.679999993000     -0.373999998400     -0.758999996800
 H       1.679999993000     -0.373999998400      0.758999996800
 O      -1.750847992700     -0.122831999500      0.000000000000
 H      -2.133847991100      0.754167996900      0.000000000000
 H      -0.799847996700      0.033167999900      0.000000000000
