ATOMS
 O       1.350999994400      0.110999999500      0.000000000000
 H       1.679999993000     -0.373999998400     -0.758999996800
 H       1.679999993000     -0.373999998400      0.758999996800
 O      -3.799272984150     -0.203114999150      0.000000000000
 H      -4.182272982550      0.673884997150      0.000000000000
 H      -2.848272988150     -0.047114999775      0.000000000000
