ATOMS
 O       1.350999994400      0.110999999500      0.000000000000
 H       1.679999993000     -0.373999998400     -0.758999996800
 H       1.679999993000     -0.373999998400      0.758999996800
 O      -5.048315978925     -0.252068998925      0.000000000000
 H      -5.431315977325      0.624930997375      0.000000000000
 H      -4.097315982900     -0.096068999625      0.000000000000
