ATOMS
 O       1.350999994400      0.110999999500      0.000000000000
 H       1.679999993000     -0.373999998400     -0.758999996800
 H       1.679999993000     -0.373999998400      0.758999996800
 O      -2.550231989400     -0.154163999400      0.000000000000
 H      -2.933231987800      0.722835997000      0.000000000000
 H      -1.599231993300      0.001836000000      0.000000000000
