ATOMS
 O       1.350999994400      0.110999999500      0.000000000000
 H       1.679999993000     -0.373999998400     -0.758999996800
 H       1.679999993000     -0.373999998400      0.758999996800
 O      -1.476056993800     -0.112062999500      0.000000000000
 H      -1.859056992200      0.764936996800      0.000000000000
 H      -0.525056997800      0.043936999800      0.000000000000
