ATOMS
 O       1.350999994400      0.110999999500      0.000000000000
 H       1.679999993000     -0.373999998400     -0.758999996800
 H       1.679999993000     -0.373999998400      0.758999996800
 O      -1.600961993300     -0.116957999500      0.000000000000
 H      -1.983961991700      0.760041996800      0.000000000000
 H      -0.649961997300      0.039041999800      0.000000000000
