ATOMS
 O       1.350999994400      0.110999999500      0.000000000000
 H       1.679999993000     -0.373999998400     -0.758999996800
 H       1.679999993000     -0.373999998400      0.758999996800
 O      -4.548699981000     -0.232487999000      0.000000000000
 H      -4.931699979400      0.644511997300      0.000000000000
 H      -3.597699985000     -0.076487999700      0.000000000000
