ATOMS
 O       1.350999994400      0.110999999500      0.000000000000
 H       1.679999993000     -0.373999998400     -0.758999996800
 H       1.679999993000     -0.373999998400      0.758999996800
 O      -1.550999993500     -0.114999999500      0.000000000000
 H      -1.933999991900      0.761999996800      0.000000000000
 H      -0.599999997500      0.040999999800      0.000000000000
