ATOMS
 O       1.350999994400      0.110999999500      0.000000000000
 H       1.679999993000     -0.373999998400     -0.758999996800
 H       1.679999993000     -0.373999998400      0.758999996800
 O      -1.725866992800     -0.121852999500      0.000000000000
 H      -2.108866991200      0.755146996875      0.000000000000
 H      -0.774866996800      0.034146999875      0.000000000000
