ATOMS
 O       1.350999994400      0.110999999500      0.000000000000
 H       1.679999993000     -0.373999998400     -0.758999996800
 H       1.679999993000     -0.373999998400      0.758999996800
 O      -2.924943987825     -0.168848999325      0.000000000000
 H      -3.307943986225      0.708150997075      0.000000000000
 H      -1.973943991725     -0.012848999925      0.000000000000
