ATOMS
 O       1.350999994400      0.110999999500      0.000000000000
 H       1.679999993000     -0.373999998400     -0.758999996800
 H       1.679999993000     -0.373999998400      0.758999996800
 O      -5.547931976850     -0.271649998850      0.000000000000
 H      -5.930931975250      0.605349997450      0.000000000000
 H      -4.596931980800     -0.115649999550      0.000000000000
