ATOMS
 O       1.350999994400      0.110999999500      0.000000000000
 H       1.679999993000     -0.373999998400     -0.758999996800
 H       1.679999993000     -0.373999998400      0.758999996800
 O      -1.426094994025     -0.110104999525      0.000000000000
 H      -1.809094992425      0.766894996800      0.000000000000
 H      -0.475094998000      0.045894999800      0.000000000000
