ATOMS
 O       1.350999994400      0.110999999500      0.000000000000
 H       1.679999993000     -0.373999998400     -0.758999996800
 H       1.679999993000     -0.373999998400      0.758999996800
 O      -1.700885992900     -0.120873999500      0.000000000000
 H      -2.083885991300      0.756125996850      0.000000000000
 H      -0.749885996900      0.035125999850      0.000000000000
