ATOMS
 O       1.350999994400      0.110999999500      0.000000000000
 H       1.679999993000     -0.373999998400     -0.758999996800
 H       1.679999993000     -0.373999998400      0.758999996800
 O     -11.543327951800     -0.506623997900      0.000000000000
 H     -11.926327950200      0.370375998500      0.000000000000
 H     -10.592327955800     -0.350623998500      0.000000000000
