ATOMS
 O       1.350999994400      0.110999999500      0.000000000000
 H       1.679999993000     -0.373999998400     -0.758999996800
 H       1.679999993000     -0.373999998400      0.758999996800
 O      -3.424559985725     -0.188428999225      0.000000000000
 H      -3.807559984125      0.688570997100      0.000000000000
 H      -2.473559989700     -0.032428999825      0.000000000000
