ATOMS
 O       1.350999994400      0.110999999500      0.000000000000
 H       1.679999993000     -0.373999998400     -0.758999996800
 H       1.679999993000     -0.373999998400      0.758999996800
 O      -1.900730992100     -0.128705999500      0.000000000000
 H      -2.283730990500      0.748293996900      0.000000000000
 H      -0.949730996025      0.027293999900      0.000000000000
