ATOMS
 O       1.350999994400      0.110999999500      0.000000000000
 H       1.679999993000     -0.373999998400     -0.758999996800
 H       1.679999993000     -0.373999998400      0.758999996800
 O      -1.950691991900     -0.130663999500      0.000000000000
 H      -2.333691990300      0.746335996900      0.000000000000
 H      -0.999691995800      0.025335999900      0.000000000000
