ATOMS
 O       1.350999994400      0.110999999500      0.000000000000
 H       1.679999993000     -0.373999998400     -0.758999996800
 H       1.679999993000     -0.373999998400      0.758999996800
 O      -1.151307995200     -0.099335999600      0.000000000000
 H      -1.534307993600      0.777663996800      0.000000000000
 H      -0.200307999200      0.056663999800      0.000000000000
