ATOMS
 O       1.350999994400      0.110999999500      0.000000000000
 H       1.679999993000     -0.373999998400     -0.758999996800
 H       1.679999993000     -0.373999998400      0.758999996800
 O      -2.025634991575     -0.133600999475      0.000000000000
 H      -2.408634989975      0.743398996900      0.000000000000
 H      -1.074634995500      0.022398999900      0.000000000000
