ATOMS
 O       1.350999994400      0.110999999500      0.000000000000
 H       1.679999993000     -0.373999998400     -0.758999996800
 H       1.679999993000     -0.373999998400      0.758999996800
 O      -1.800808992500     -0.124789999500      0.000000000000
 H      -2.183808990900      0.752209996900      0.000000000000
 H      -0.849808996475      0.031209999900      0.000000000000
