ATOMS
 O       1.350999994400      0.110999999500      0.000000000000
 H       1.679999993000     -0.373999998400     -0.758999996800
 H       1.679999993000     -0.373999998400      0.758999996800
 O      -2.800039988350     -0.163953999350      0.000000000000
 H      -3.183039986750      0.713045997050      0.000000000000
 H      -1.849039992250     -0.007953999950      0.000000000000
