ATOMS
 O       1.350999994400      0.110999999500      0.000000000000
 H       1.679999993000     -0.373999998400     -0.758999996800
 H       1.679999993000     -0.373999998400      0.758999996800
 O      -2.675135988875     -0.159058999375      0.000000000000
 H      -3.058135987275      0.717940997025      0.000000000000
 H      -1.724135992775     -0.003058999975      0.000000000000
