ATOMS
 O       1.350999994400      0.110999999500      0.000000000000
 H       1.679999993000     -0.373999998400     -0.758999996800
 H       1.679999993000     -0.373999998400      0.758999996800
 O      -1.301190994600     -0.105209999600      0.000000000000
 H      -1.684190993000      0.771789996800      0.000000000000
 H      -0.350190998525      0.050789999800      0.000000000000
