ATOMS
 O       1.350999994400      0.110999999500      0.000000000000
 H       1.679999993000     -0.373999998400     -0.758999996800
 H       1.679999993000     -0.373999998400      0.758999996800
 O      -1.201268995000     -0.101293999600      0.000000000000
 H      -1.584268993400      0.775705996800      0.000000000000
 H      -0.250268998975      0.054705999800      0.000000000000
