ATOMS
 O       1.350999994400      0.110999999500      0.000000000000
 H       1.679999993000     -0.373999998400     -0.758999996800
 H       1.679999993000     -0.373999998400      0.758999996800
 O      -1.650923993100     -0.118915999500      0.000000000000
 H      -2.033923991500      0.758083996800      0.000000000000
 H      -0.699923997100      0.037083999800      0.000000000000
