ATOMS
 O       1.350999994400      0.110999999500      0.000000000000
 H       1.679999993000     -0.373999998400     -0.758999996800
 H       1.679999993000     -0.373999998400      0.758999996800
 O      -4.298890982050     -0.222696999050      0.000000000000
 H      -4.681890980450      0.654302997250      0.000000000000
 H      -3.347890986050     -0.066696999725      0.000000000000
