ATOMS
 O       1.350999994400      0.110999999500      0.000000000000
 H       1.679999993000     -0.373999998400     -0.758999996800
 H       1.679999993000     -0.373999998400      0.758999996800
 O      -6.047547974775     -0.291230998775      0.000000000000
 H      -6.430547973175      0.585768997525      0.000000000000
 H      -5.096547978700     -0.135230999475      0.000000000000
