ATOMS
 O       1.350999994400      0.110999999500      0.000000000000
 H       1.679999993000     -0.373999998400     -0.758999996800
 H       1.679999993000     -0.373999998400      0.758999996800
 O      -3.299655986250     -0.183533999250      0.000000000000
 H      -3.682655984650      0.693465997100      0.000000000000
 H      -2.348655990200     -0.027533999850      0.000000000000
