ATOMS
 O       1.350999994400      0.110999999500      0.000000000000
 H       1.679999993000     -0.373999998400     -0.758999996800
 H       1.679999993000     -0.373999998400      0.758999996800
 O      -1.251229994800     -0.103251999600      0.000000000000
 H      -1.634229993200      0.773747996800      0.000000000000
 H      -0.300229998750      0.052747999800      0.000000000000
