ATOMS
 O       1.350999994400      0.110999999500      0.000000000000
 H       1.679999993000     -0.373999998400     -0.758999996800
 H       1.679999993000     -0.373999998400      0.758999996800
 O      -1.351151994400     -0.107167999600      0.000000000000
 H      -1.734151992800      0.769831996800      0.000000000000
 H      -0.400151998300      0.048831999800      0.000000000000
