ATOMS
 O       1.350999994400      0.110999999500      0.000000000000
 H       1.679999993000     -0.373999998400     -0.758999996800
 H       1.679999993000     -0.373999998400      0.758999996800
 O      -2.175520990925     -0.139474999425      0.000000000000
 H      -2.558520989325      0.737524996900      0.000000000000
 H      -1.224520994900      0.016524999900      0.000000000000
