ATOMS
 O       1.350999994400      0.110999999500      0.000000000000
 H       1.679999993000     -0.373999998400     -0.758999996800
 H       1.679999993000     -0.373999998400      0.758999996800
 O     -10.294286957025     -0.457670998100      0.000000000000
 H     -10.677286955425      0.419328998275      0.000000000000
 H      -9.343286961000     -0.301670998725      0.000000000000
