ATOMS
 O       1.350999994400      0.110999999500      0.000000000000
 H       1.679999993000     -0.373999998400     -0.758999996800
 H       1.679999993000     -0.373999998400      0.758999996800
 O      -1.401113994150     -0.109125999550      0.000000000000
 H      -1.784113992550      0.767873996800      0.000000000000
 H      -0.450113998100      0.046873999800      0.000000000000
