ATOMS
 O       1.350999994400      0.110999999500      0.000000000000
 H       1.679999993000     -0.373999998400     -0.758999996800
 H       1.679999993000     -0.373999998400      0.758999996800
 O      -1.675904993000     -0.119894999500      0.000000000000
 H      -2.058904991400      0.757104996825      0.000000000000
 H      -0.724904997000      0.036104999825      0.000000000000
