ATOMS
 O       1.350999994400      0.110999999500      0.000000000000
 H       1.679999993000     -0.373999998400     -0.758999996800
 H       1.679999993000     -0.373999998400      0.758999996800
 O      -2.475289989700     -0.151225999400      0.000000000000
 H      -2.858289988100      0.725773996975      0.000000000000
 H      -1.524289993625      0.004773999975      0.000000000000
