ATOMS
 O       1.350999994400      0.110999999500      0.000000000000
 H       1.679999993000     -0.373999998400     -0.758999996800
 H       1.679999993000     -0.373999998400      0.758999996800
 O      -0.851535996475     -0.087587999675      0.000000000000
 H      -1.234535994875      0.789411996725      0.000000000000
 H       0.099463999600      0.068411999725      0.000000000000
