ATOMS
 O       1.350999994400      0.110999999500      0.000000000000
 H       1.679999993000     -0.373999998400     -0.758999996800
 H       1.679999993000     -0.373999998400      0.758999996800
 O      -1.451075993900     -0.111083999500      0.000000000000
 H      -1.834075992300      0.765915996800      0.000000000000
 H      -0.500075997900      0.044915999800      0.000000000000
