ATOMS
 O       1.350999994400      0.110999999500      0.000000000000
 H       1.679999993000     -0.373999998400     -0.758999996800
 H       1.679999993000     -0.373999998400      0.758999996800
 O      -1.526018993600     -0.114020999500      0.000000000000
 H      -1.909018992000      0.762978996800      0.000000000000
 H      -0.575018997600      0.041978999800      0.000000000000
