ATOMS
 O       1.350999994400      0.110999999500      0.000000000000
 H       1.679999993000     -0.373999998400     -0.758999996800
 H       1.679999993000     -0.373999998400      0.758999996800
 O      -1.625942993200     -0.117936999500      0.000000000000
 H      -2.008942991600      0.759062996800      0.000000000000
 H      -0.674942997200      0.038062999800      0.000000000000
