ATOMS
 O       1.350999994400      0.110999999500      0.000000000000
 H       1.679999993000     -0.373999998400     -0.758999996800
 H       1.679999993000     -0.373999998400      0.758999996800
 O      -3.549463985200     -0.193323999200      0.000000000000
 H      -3.932463983600      0.683675997100      0.000000000000
 H      -2.598463989200     -0.037323999800      0.000000000000
