ATOMS
 O       1.350999994400      0.110999999500      0.000000000000
 H       1.679999993000     -0.373999998400     -0.758999996800
 H       1.679999993000     -0.373999998400      0.758999996800
 O      -0.751611996900     -0.083671999700      0.000000000000
 H      -1.134611995300      0.793327996700      0.000000000000
 H       0.199387999200      0.072327999700      0.000000000000
