ATOMS
 O       1.350999994400      0.110999999500      0.000000000000
 H       1.679999993000     -0.373999998400     -0.758999996800
 H       1.679999993000     -0.373999998400      0.758999996800
 O      -2.325405990300     -0.145349999400      0.000000000000
 H      -2.708405988700      0.731649996925      0.000000000000
 H      -1.374405994275      0.010649999925      0.000000000000
