ATOMS
 O       1.350999994400      0.110999999500      0.000000000000
 H       1.679999993000     -0.373999998400     -0.758999996800
 H       1.679999993000     -0.373999998400      0.758999996800
 O      -1.051383995625     -0.095419999625      0.000000000000
 H      -1.434383994025      0.781579996775      0.000000000000
 H      -0.100383999600      0.060579999775      0.000000000000
