# total energy = -2574.6551335763140927 eV

ATOMS
Ar      0.0000000000   0.0000000000   0.0000000000	     0.00000000    0.00000000    0.00018717
Ar      0.0000000000   0.0000000000   4.0500000000	     0.00000000    0.00000000   -0.00018717
