# total energy = -2574.6547998286617857 eV

ATOMS
Ar      0.0000000000   0.0000000000   0.0000000000	   0.0000000000   0.0000000000   0.0000000000
Ar      0.0000000000   0.0000000000   3.7500000000	   0.0000000000   0.0000000000   0.0000000000
