# total energy = -2574.5437560118399516 eV

ATOMS
Ar      0.0000000000   0.0000000000   0.0000000000	     0.00000000    0.00000000   -0.01831078
Ar      0.0000000000   0.0000000000   3.0000000000	     0.00000000    0.00000000    0.01831078
