# total energy = -2574.6544690742619657 eV

ATOMS
Ar      0.0000000000   0.0000000000   0.0000000000	     0.00000000    0.00000000    0.00028974
Ar      0.0000000000   0.0000000000   4.1500000000	     0.00000000    0.00000000   -0.00028974
