# total energy = -2574.6554209285528504 eV

ATOMS
Ar      0.0000000000   0.0000000000   0.0000000000	   0.0000000000   0.0000000000   0.0000000000
Ar      0.0000000000   0.0000000000   4.0000000000	   0.0000000000   0.0000000000   0.0000000000
