# total energy = -2574.5651463383401978 eV

ATOMS
Ar      0.0000000000   0.0000000000   0.0000000000	   0.0000000000   0.0000000000   0.0000000000
Ar      0.0000000000   0.0000000000   3.0500000000	   0.0000000000   0.0000000000   0.0000000000
