# total energy = -2574.6531472811750669 eV

ATOMS
Ar      0.0000000000   0.0000000000   0.0000000000	     0.00000000    0.00000000    0.00030674
Ar      0.0000000000   0.0000000000   4.3000000000	     0.00000000    0.00000000   -0.00030674
