# total energy = -2574.6462193982937695 eV

ATOMS
Ar      0.0000000000   0.0000000000   0.0000000000	     0.00000000    0.00000000    0.00014964
Ar      0.0000000000   0.0000000000   5.4000000000	     0.00000000    0.00000000   -0.00014964
