# total energy = -2574.6539799495941941 eV

ATOMS
Ar      0.0000000000   0.0000000000   0.0000000000	   0.0000000000   0.0000000000   0.0000000000
Ar      0.0000000000   0.0000000000   3.7000000000	   0.0000000000   0.0000000000   0.0000000000
