# total energy = -2574.5975484325695393 eV

ATOMS
Ar      0.0000000000   0.0000000000   0.0000000000	     0.00000000    0.00000000   -0.01035179
Ar      0.0000000000   0.0000000000   3.1500000000	     0.00000000    0.00000000    0.01035179
