# total energy = -2574.6484295070846687 eV

ATOMS
Ar      0.0000000000   0.0000000000   0.0000000000	     0.00000000    0.00000000    0.00025163
Ar      0.0000000000   0.0000000000   4.9000000000	     0.00000000    0.00000000   -0.00025163
