# total energy = -2574.6480784802020954 eV

ATOMS
Ar      0.0000000000   0.0000000000   0.0000000000	   0.0000000000   0.0000000000   0.0000000000
Ar      0.0000000000   0.0000000000   4.9500000000	   0.0000000000   0.0000000000   0.0000000000
