# total energy = -2574.6472889418301681 eV

ATOMS
Ar      0.0000000000   0.0000000000   0.0000000000	     0.00000000    0.00000000    0.00019507
Ar      0.0000000000   0.0000000000   5.1000000000	     0.00000000    0.00000000   -0.00019507
