# total energy = -2574.6493655787715307 eV

ATOMS
Ar      0.0000000000   0.0000000000   0.0000000000	     0.00000000    0.00000000   -0.00180421
Ar      0.0000000000   0.0000000000   3.5500000000	     0.00000000    0.00000000    0.00180421
