# total energy = -2574.6466879783649255 eV

ATOMS
Ar      0.0000000000   0.0000000000   0.0000000000	     0.00000000    0.00000000    0.00019840
Ar      0.0000000000   0.0000000000   5.2500000000	     0.00000000    0.00000000   -0.00019840
