# total energy = -2574.6493904771899458 eV

ATOMS
Ar      0.0000000000   0.0000000000   0.0000000000	     0.00000000    0.00000000    0.00033077
Ar      0.0000000000   0.0000000000   4.7500000000	     0.00000000    0.00000000   -0.00033077
