# total energy = -2574.6471403676612650 eV

ATOMS
Ar      0.0000000000   0.0000000000   0.0000000000	     0.00000000    0.00000000    0.00019256
Ar      0.0000000000   0.0000000000   5.1500000000	     0.00000000    0.00000000   -0.00019256
