# total energy = -2574.6392645761400887 eV

ATOMS
Ar      0.0000000000   0.0000000000   0.0000000000	     0.00000000    0.00000000   -0.00368956
Ar      0.0000000000   0.0000000000   3.4000000000	     0.00000000    0.00000000    0.00368956
