# total energy = -2574.6478312647580506 eV

ATOMS
Ar      0.0000000000   0.0000000000   0.0000000000	     0.00000000    0.00000000    0.00026384
Ar      0.0000000000   0.0000000000   5.0000000000	     0.00000000    0.00000000   -0.00026384
