# total energy = -2574.6526895856584093 eV

ATOMS
Ar      0.0000000000   0.0000000000   0.0000000000	     0.00000000    0.00000000    0.00039573
Ar      0.0000000000   0.0000000000   4.3500000000	     0.00000000    0.00000000   -0.00039573
