# total energy = -2574.6501669540964750 eV

ATOMS
Ar      0.0000000000   0.0000000000   0.0000000000	     0.00000000    0.00000000    0.00030825
Ar      0.0000000000   0.0000000000   4.6500000000	     0.00000000    0.00000000   -0.00030825
