# total energy = -2574.6517672557216016 eV

ATOMS
Ar      0.0000000000   0.0000000000   0.0000000000	     0.00000000    0.00000000    0.00032904
Ar      0.0000000000   0.0000000000   4.4500000000	     0.00000000    0.00000000   -0.00032904
