# total energy = -2574.6509544516144339 eV

ATOMS
Ar      0.0000000000   0.0000000000   0.0000000000	     0.00000000    0.00000000    0.00028460
Ar      0.0000000000   0.0000000000   4.5500000000	     0.00000000    0.00000000   -0.00028460
