# total energy = -2574.6194691089877198 eV

ATOMS
Ar      0.0000000000   0.0000000000   0.0000000000	   0.0000000000   0.0000000000   0.0000000000
Ar      0.0000000000   0.0000000000   3.2500000000	   0.0000000000   0.0000000000   0.0000000000
