# total energy = -2574.5829268023410513 eV

ATOMS
Ar      0.0000000000   0.0000000000   0.0000000000	   0.0000000000   0.0000000000   0.0000000000
Ar      0.0000000000   0.0000000000   3.1000000000	   0.0000000000   0.0000000000   0.0000000000
