# total energy = -2574.6529187055306006 eV

ATOMS
Ar      0.0000000000   0.0000000000   0.0000000000	     0.00000000    0.00000000   -0.00103834
Ar      0.0000000000   0.0000000000   3.6500000000	     0.00000000    0.00000000    0.00103834
