# total energy = -2574.6501669540964750 eV

ATOMS
Ar      0.0000000000   0.0000000000   0.0000000000	   0.0000000000   0.0000000000   0.0000000000
Ar      0.0000000000   0.0000000000   4.6500000000	   0.0000000000   0.0000000000   0.0000000000
