# total energy = -2574.6540078412650962 eV

ATOMS
Ar      0.0000000000   0.0000000000   0.0000000000	   0.0000000000   0.0000000000   0.0000000000
Ar      0.0000000000   0.0000000000   4.2000000000	   0.0000000000   0.0000000000   0.0000000000
