# total energy = -2574.6555255563329662 eV

ATOMS
Ar      0.0000000000   0.0000000000   0.0000000000	     0.00000000    0.00000000    0.00010000
Ar      0.0000000000   0.0000000000   3.9500000000	     0.00000000    0.00000000   -0.00010000
