# total energy = -2574.6340002613569399 eV

ATOMS
Ar      0.0000000000   0.0000000000   0.0000000000	   0.0000000000   0.0000000000   0.0000000000
Ar      0.0000000000   0.0000000000   3.3500000000	   0.0000000000   0.0000000000   0.0000000000
