# total energy = -2574.6463282438387535 eV

ATOMS
Ar      0.0000000000   0.0000000000   0.0000000000	     0.00000000    0.00000000    0.00012919
Ar      0.0000000000   0.0000000000   5.3500000000	     0.00000000    0.00000000   -0.00012919
