# total energy = -2574.6458313639259018 eV

ATOMS
Ar      0.0000000000   0.0000000000   0.0000000000	     0.00000000    0.00000000    0.00007757
Ar      0.0000000000   0.0000000000   5.5500000000	     0.00000000    0.00000000   -0.00007757
