# total energy = -2574.6434249249832378 eV

ATOMS
Ar      0.0000000000   0.0000000000   0.0000000000	   0.0000000000   0.0000000000   0.0000000000
Ar      0.0000000000   0.0000000000   3.4500000000	   0.0000000000   0.0000000000   0.0000000000
