# total energy = -2574.6486986276946415 eV

ATOMS
Ar      0.0000000000   0.0000000000   0.0000000000	     0.00000000    0.00000000    0.00027574
Ar      0.0000000000   0.0000000000   4.8500000000	     0.00000000    0.00000000   -0.00027574
