# total energy = -2574.6468950570142574 eV

ATOMS
Ar      0.0000000000   0.0000000000   0.0000000000	   0.0000000000   0.0000000000   0.0000000000
Ar      0.0000000000   0.0000000000   5.2000000000	   0.0000000000   0.0000000000   0.0000000000
