# total energy = -2574.6478312647580506 eV

ATOMS
Ar      0.0000000000   0.0000000000   0.0000000000	   0.0000000000   0.0000000000   0.0000000000
Ar      0.0000000000   0.0000000000   5.0000000000	   0.0000000000   0.0000000000   0.0000000000
